LAMMPS data file generated by OpenBabel
470 atoms
3 atom types
   0.00000   17.29000 xlo xhi
   0.00000   17.11200 ylo yhi
   0.0000    35.00000 zlo zhi


Masses

1 12.0107 # C
2 2.00000 # D
3 15.9994 # O


Atoms

1       1    1    0.00000    0.61800    0.35600   12.50000 #   C
2       1    1    0.00000    1.85300    3.92100   12.50000 #   C
3       1    1    0.00000    1.85300    2.49500   12.50000 #   C
4       1    1    0.00000    0.61800    1.78200   12.50000 #   C
5       1    1    0.00000    0.61800    4.63400   12.50000 #   C
6       1    1    0.00000    1.85300    8.20000   12.50000 #   C
7       1    1    0.00000    1.85300    6.77300   12.50000 #   C
8       1    1    0.00000    0.61800    6.06000   12.50000 #   C
9       1    1    0.00000    0.61800    8.91200   12.50000 #   C
10      1    1    0.00000    1.85300   12.47700   12.50000 #   C
11      1    1    0.00000    1.85300   11.05100   12.50000 #   C
12      1    1    0.00000    0.61800   10.33800   12.50000 #   C
13      1    1    0.00000    0.61800   13.19100   12.50000 #   C
14      1    1    0.00000    1.85300   16.75500   12.50000 #   C
15      1    1    0.00000    1.85300   15.32900   12.50000 #   C
16      1    1    0.00000    0.61800   14.61600   12.50000 #   C
17      1    1    0.00000    3.08700    0.35600   12.50000 #   C
18      1    1    0.00000    4.32200    3.92100   12.50000 #   C
19      1    1    0.00000    4.32200    2.49500   12.50000 #   C
20      1    1    0.00000    3.08700    1.78200   12.50000 #   C
21      1    1    0.00000    3.08700    4.63400   12.50000 #   C
22      1    1    0.00000    4.32200    8.20000   12.50000 #   C
23      1    1    0.00000    4.32200    6.77300   12.50000 #   C
24      1    1    0.00000    3.08700    6.06000   12.50000 #   C
25      1    1    0.00000    3.08700    8.91200   12.50000 #   C
26      1    1    0.00000    4.32200   12.47700   12.50000 #   C
27      1    1    0.00000    4.32200   11.05100   12.50000 #   C
28      1    1    0.00000    3.08700   10.33800   12.50000 #   C
29      1    1    0.00000    3.08700   13.19100   12.50000 #   C
30      1    1    0.00000    4.32200   16.75500   12.50000 #   C
31      1    1    0.00000    4.32200   15.32900   12.50000 #   C
32      1    1    0.00000    3.08700   14.61600   12.50000 #   C
33      1    1    0.00000    5.55800    0.35600   12.50000 #   C
34      1    1    0.00000    6.79200    3.92100   12.50000 #   C
35      1    1    0.00000    6.79200    2.49500   12.50000 #   C
36      1    1    0.00000    5.55800    1.78200   12.50000 #   C
37      1    1    0.00000    5.55800    4.63400   12.50000 #   C
38      1    1    0.00000    6.79200    8.20000   12.50000 #   C
39      1    1    0.00000    6.79200    6.77300   12.50000 #   C
40      1    1    0.00000    5.55800    6.06000   12.50000 #   C
41      1    1    0.00000    5.55800    8.91200   12.50000 #   C
42      1    1    0.00000    6.79200   12.47700   12.50000 #   C
43      1    1    0.00000    6.79200   11.05100   12.50000 #   C
44      1    1    0.00000    5.55800   10.33800   12.50000 #   C
45      1    1    0.00000    5.55800   13.19100   12.50000 #   C
46      1    1    0.00000    6.79200   16.75500   12.50000 #   C
47      1    1    0.00000    6.79200   15.32900   12.50000 #   C
48      1    1    0.00000    5.55800   14.61600   12.50000 #   C
49      1    1    0.00000    8.02800    0.35600   12.50000 #   C
50      1    1    0.00000    9.26300    3.92100   12.50000 #   C
51      1    1    0.00000    9.26300    2.49500   12.50000 #   C
52      1    1    0.00000    8.02800    1.78200   12.50000 #   C
53      1    1    0.00000    8.02800    4.63400   12.50000 #   C
54      1    1    0.00000    9.26300    8.20000   12.50000 #   C
55      1    1    0.00000    9.26300    6.77300   12.50000 #   C
56      1    1    0.00000    8.02800    6.06000   12.50000 #   C
57      1    1    0.00000    8.02800    8.91200   12.50000 #   C
58      1    1    0.00000    9.26300   12.47700   12.50000 #   C
59      1    1    0.00000    9.26300   11.05100   12.50000 #   C
60      1    1    0.00000    8.02800   10.33800   12.50000 #   C
61      1    1    0.00000    8.02800   13.19100   12.50000 #   C
62      1    1    0.00000    9.26300   16.75500   12.50000 #   C
63      1    1    0.00000    9.26300   15.32900   12.50000 #   C
64      1    1    0.00000    8.02800   14.61600   12.50000 #   C
65      1    1    0.00000   10.49800    0.35600   12.50000 #   C
66      1    1    0.00000   11.73200    3.92100   12.50000 #   C
67      1    1    0.00000   11.73200    2.49500   12.50000 #   C
68      1    1    0.00000   10.49800    1.78200   12.50000 #   C
69      1    1    0.00000   10.49800    4.63400   12.50000 #   C
70      1    1    0.00000   11.73200    8.20000   12.50000 #   C
71      1    1    0.00000   11.73200    6.77300   12.50000 #   C
72      1    1    0.00000   10.49800    6.06000   12.50000 #   C
73      1    1    0.00000   10.49800    8.91200   12.50000 #   C
74      1    1    0.00000   11.73200   12.47700   12.50000 #   C
75      1    1    0.00000   11.73200   11.05100   12.50000 #   C
76      1    1    0.00000   10.49800   10.33800   12.50000 #   C
77      1    1    0.00000   10.49800   13.19100   12.50000 #   C
78      1    1    0.00000   11.73200   16.75500   12.50000 #   C
79      1    1    0.00000   11.73200   15.32900   12.50000 #   C
80      1    1    0.00000   10.49800   14.61600   12.50000 #   C
81      1    1    0.00000   12.96700    0.35600   12.50000 #   C
82      1    1    0.00000   14.20300    3.92100   12.50000 #   C
83      1    1    0.00000   14.20300    2.49500   12.50000 #   C
84      1    1    0.00000   12.96700    1.78200   12.50000 #   C
85      1    1    0.00000   12.96700    4.63400   12.50000 #   C
86      1    1    0.00000   14.20300    8.20000   12.50000 #   C
87      1    1    0.00000   14.20300    6.77300   12.50000 #   C
88      1    1    0.00000   12.96700    6.06000   12.50000 #   C
89      1    1    0.00000   12.96700    8.91200   12.50000 #   C
90      1    1    0.00000   14.20300   12.47700   12.50000 #   C
91      1    1    0.00000   14.20300   11.05100   12.50000 #   C
92      1    1    0.00000   12.96700   10.33800   12.50000 #   C
93      1    1    0.00000   12.96700   13.19100   12.50000 #   C
94      1    1    0.00000   14.20300   16.75500   12.50000 #   C
95      1    1    0.00000   14.20300   15.32900   12.50000 #   C
96      1    1    0.00000   12.96700   14.61600   12.50000 #   C
97      1    1    0.00000   15.43800    0.35600   12.50000 #   C
98      1    1    0.00000   16.67300    3.92100   12.50000 #   C
99      1    1    0.00000   16.67300    2.49500   12.50000 #   C
100     1    1    0.00000   15.43800    1.78200   12.50000 #   C
101     1    1    0.00000   15.43800    4.63400   12.50000 #   C
102     1    1    0.00000   16.67300    8.20000   12.50000 #   C
103     1    1    0.00000   16.67300    6.77300   12.50000 #   C
104     1    1    0.00000   15.43800    6.06000   12.50000 #   C
105     1    1    0.00000   15.43800    8.91200   12.50000 #   C
106     1    1    0.00000   16.67300   12.47700   12.50000 #   C
107     1    1    0.00000   16.67300   11.05100   12.50000 #   C
108     1    1    0.00000   15.43800   10.33800   12.50000 #   C
109     1    1    0.00000   15.43800   13.19100   12.50000 #   C
110     1    1    0.00000   16.67300   16.75500   12.50000 #   C
111     1    1    0.00000   16.67300   15.32900   12.50000 #   C
112     1    1    0.00000   15.43800   14.61600   12.50000 #   C
113     2    1    0.00000    0.61800    0.35600   22.50000 #   C
114     2    1    0.00000    1.85300    3.92100   22.50000 #   C
115     2    1    0.00000    1.85300    2.49500   22.50000 #   C
116     2    1    0.00000    0.61800    1.78200   22.50000 #   C
117     2    1    0.00000    0.61800    4.63400   22.50000 #   C
118     2    1    0.00000    1.85300    8.20000   22.50000 #   C
119     2    1    0.00000    1.85300    6.77300   22.50000 #   C
120     2    1    0.00000    0.61800    6.06000   22.50000 #   C
121     2    1    0.00000    0.61800    8.91200   22.50000 #   C
122     2    1    0.00000    1.85300   12.47700   22.50000 #   C
123     2    1    0.00000    1.85300   11.05100   22.50000 #   C
124     2    1    0.00000    0.61800   10.33800   22.50000 #   C
125     2    1    0.00000    0.61800   13.19100   22.50000 #   C
126     2    1    0.00000    1.85300   16.75500   22.50000 #   C
127     2    1    0.00000    1.85300   15.32900   22.50000 #   C
128     2    1    0.00000    0.61800   14.61600   22.50000 #   C
129     2    1    0.00000    3.08700    0.35600   22.50000 #   C
130     2    1    0.00000    4.32200    3.92100   22.50000 #   C
131     2    1    0.00000    4.32200    2.49500   22.50000 #   C
132     2    1    0.00000    3.08700    1.78200   22.50000 #   C
133     2    1    0.00000    3.08700    4.63400   22.50000 #   C
134     2    1    0.00000    4.32200    8.20000   22.50000 #   C
135     2    1    0.00000    4.32200    6.77300   22.50000 #   C
136     2    1    0.00000    3.08700    6.06000   22.50000 #   C
137     2    1    0.00000    3.08700    8.91200   22.50000 #   C
138     2    1    0.00000    4.32200   12.47700   22.50000 #   C
139     2    1    0.00000    4.32200   11.05100   22.50000 #   C
140     2    1    0.00000    3.08700   10.33800   22.50000 #   C
141     2    1    0.00000    3.08700   13.19100   22.50000 #   C
142     2    1    0.00000    4.32200   16.75500   22.50000 #   C
143     2    1    0.00000    4.32200   15.32900   22.50000 #   C
144     2    1    0.00000    3.08700   14.61600   22.50000 #   C
145     2    1    0.00000    5.55800    0.35600   22.50000 #   C
146     2    1    0.00000    6.79200    3.92100   22.50000 #   C
147     2    1    0.00000    6.79200    2.49500   22.50000 #   C
148     2    1    0.00000    5.55800    1.78200   22.50000 #   C
149     2    1    0.00000    5.55800    4.63400   22.50000 #   C
150     2    1    0.00000    6.79200    8.20000   22.50000 #   C
151     2    1    0.00000    6.79200    6.77300   22.50000 #   C
152     2    1    0.00000    5.55800    6.06000   22.50000 #   C
153     2    1    0.00000    5.55800    8.91200   22.50000 #   C
154     2    1    0.00000    6.79200   12.47700   22.50000 #   C
155     2    1    0.00000    6.79200   11.05100   22.50000 #   C
156     2    1    0.00000    5.55800   10.33800   22.50000 #   C
157     2    1    0.00000    5.55800   13.19100   22.50000 #   C
158     2    1    0.00000    6.79200   16.75500   22.50000 #   C
159     2    1    0.00000    6.79200   15.32900   22.50000 #   C
160     2    1    0.00000    5.55800   14.61600   22.50000 #   C
161     2    1    0.00000    8.02800    0.35600   22.50000 #   C
162     2    1    0.00000    9.26300    3.92100   22.50000 #   C
163     2    1    0.00000    9.26300    2.49500   22.50000 #   C
164     2    1    0.00000    8.02800    1.78200   22.50000 #   C
165     2    1    0.00000    8.02800    4.63400   22.50000 #   C
166     2    1    0.00000    9.26300    8.20000   22.50000 #   C
167     2    1    0.00000    9.26300    6.77300   22.50000 #   C
168     2    1    0.00000    8.02800    6.06000   22.50000 #   C
169     2    1    0.00000    8.02800    8.91200   22.50000 #   C
170     2    1    0.00000    9.26300   12.47700   22.50000 #   C
171     2    1    0.00000    9.26300   11.05100   22.50000 #   C
172     2    1    0.00000    8.02800   10.33800   22.50000 #   C
173     2    1    0.00000    8.02800   13.19100   22.50000 #   C
174     2    1    0.00000    9.26300   16.75500   22.50000 #   C
175     2    1    0.00000    9.26300   15.32900   22.50000 #   C
176     2    1    0.00000    8.02800   14.61600   22.50000 #   C
177     2    1    0.00000   10.49800    0.35600   22.50000 #   C
178     2    1    0.00000   11.73200    3.92100   22.50000 #   C
179     2    1    0.00000   11.73200    2.49500   22.50000 #   C
180     2    1    0.00000   10.49800    1.78200   22.50000 #   C
181     2    1    0.00000   10.49800    4.63400   22.50000 #   C
182     2    1    0.00000   11.73200    8.20000   22.50000 #   C
183     2    1    0.00000   11.73200    6.77300   22.50000 #   C
184     2    1    0.00000   10.49800    6.06000   22.50000 #   C
185     2    1    0.00000   10.49800    8.91200   22.50000 #   C
186     2    1    0.00000   11.73200   12.47700   22.50000 #   C
187     2    1    0.00000   11.73200   11.05100   22.50000 #   C
188     2    1    0.00000   10.49800   10.33800   22.50000 #   C
189     2    1    0.00000   10.49800   13.19100   22.50000 #   C
190     2    1    0.00000   11.73200   16.75500   22.50000 #   C
191     2    1    0.00000   11.73200   15.32900   22.50000 #   C
192     2    1    0.00000   10.49800   14.61600   22.50000 #   C
193     2    1    0.00000   12.96700    0.35600   22.50000 #   C
194     2    1    0.00000   14.20300    3.92100   22.50000 #   C
195     2    1    0.00000   14.20300    2.49500   22.50000 #   C
196     2    1    0.00000   12.96700    1.78200   22.50000 #   C
197     2    1    0.00000   12.96700    4.63400   22.50000 #   C
198     2    1    0.00000   14.20300    8.20000   22.50000 #   C
199     2    1    0.00000   14.20300    6.77300   22.50000 #   C
200     2    1    0.00000   12.96700    6.06000   22.50000 #   C
201     2    1    0.00000   12.96700    8.91200   22.50000 #   C
202     2    1    0.00000   14.20300   12.47700   22.50000 #   C
203     2    1    0.00000   14.20300   11.05100   22.50000 #   C
204     2    1    0.00000   12.96700   10.33800   22.50000 #   C
205     2    1    0.00000   12.96700   13.19100   22.50000 #   C
206     2    1    0.00000   14.20300   16.75500   22.50000 #   C
207     2    1    0.00000   14.20300   15.32900   22.50000 #   C
208     2    1    0.00000   12.96700   14.61600   22.50000 #   C
209     2    1    0.00000   15.43800    0.35600   22.50000 #   C
210     2    1    0.00000   16.67300    3.92100   22.50000 #   C
211     2    1    0.00000   16.67300    2.49500   22.50000 #   C
212     2    1    0.00000   15.43800    1.78200   22.50000 #   C
213     2    1    0.00000   15.43800    4.63400   22.50000 #   C
214     2    1    0.00000   16.67300    8.20000   22.50000 #   C
215     2    1    0.00000   16.67300    6.77300   22.50000 #   C
216     2    1    0.00000   15.43800    6.06000   22.50000 #   C
217     2    1    0.00000   15.43800    8.91200   22.50000 #   C
218     2    1    0.00000   16.67300   12.47700   22.50000 #   C
219     2    1    0.00000   16.67300   11.05100   22.50000 #   C
220     2    1    0.00000   15.43800   10.33800   22.50000 #   C
221     2    1    0.00000   15.43800   13.19100   22.50000 #   C
222     2    1    0.00000   16.67300   16.75500   22.50000 #   C
223     2    1    0.00000   16.67300   15.32900   22.50000 #   C
224     2    1    0.00000   15.43800   14.61600   22.50000 #   C
225     3    3   -0.82000   11.94000   10.13700   18.08000 #   O
226     3    2    0.41000   10.99200   10.18900   17.95600 #   H
227     3    2    0.41000   12.24600   11.03700   17.96700 #   H
228     4    3   -0.82000    4.11400   15.00500   17.54000 #   O
229     4    2    0.41000    3.88800   14.68000   16.66800 #   H
230     4    2    0.41000    3.29000   14.98200   18.02600 #   H
231     5    3   -0.82000    8.52400    1.65700   17.63800 #   O
232     5    2    0.41000    7.78200    2.05900   18.09000 #   H
233     5    2    0.41000    9.00200    2.39400   17.25900 #   H
234     6    3   -0.82000    6.70000    7.19600   16.19500 #   O
235     6    2    0.41000    7.13100    8.01800   16.42900 #   H
236     6    2    0.41000    7.41600    6.56500   16.11300 #   H
237     7    3   -0.82000   10.50000   14.88300   18.22500 #   O
238     7    2    0.41000    9.85300   14.95100   17.52300 #   H
239     7    2    0.41000   10.92600   14.03900   18.07900 #   H
240     8    3   -0.82000    1.19000    9.74500   15.08300 #   O
241     8    2    0.41000    0.34100    9.40300   15.36400 #   H
242     8    2    0.41000    1.70400    8.96600   14.87100 #   H
243     9    3   -0.82000   15.38400   12.73100   15.80800 #   O
244     9    2    0.41000   16.21500   12.61700   16.27000 #   H
245     9    2    0.41000   14.78200   12.13000   16.24700 #   H
246    10    3   -0.82000    1.05300    7.49600   18.29000 #   O
247    10    2    0.41000    0.72200    8.00800   19.02800 #   H
248    10    2    0.41000    1.74400    8.03900   17.91100 #   H
249    11    3   -0.82000    9.53300   15.86200   15.31000 #   O
250    11    2    0.41000    9.35900   14.98500   15.65000 #   H
251    11    2    0.41000    9.00400   15.92100   14.51400 #   H
252    12    3   -0.82000    4.74900    0.53800   17.27800 #   O
253    12    2    0.41000    4.22200    0.67800   16.49100 #   H
254    12    2    0.41000    5.08800    1.40500   17.49700 #   H
255    13    3   -0.82000   14.84200    9.11800   15.37100 #   O
256    13    2    0.41000   15.06700    9.78000   16.02500 #   H
257    13    2    0.41000   14.54900    9.62000   14.61100 #   H
258    14    3   -0.82000   12.03000    3.97100   15.87600 #   O
259    14    2    0.41000   12.16000    3.08600   15.53700 #   H
260    14    2    0.41000   11.60300    4.44200   15.16100 #   H
261    15    3   -0.82000    9.53200   10.69600   16.60300 #   O
262    15    2    0.41000    9.51500   11.20000   17.41700 #   H
263    15    2    0.41000   10.45300   10.69100   16.34300 #   H
264    16    3   -0.82000    0.40300    5.09800   17.04600 #   O
265    16    2    0.41000    0.07200    5.14000   17.94300 #   H
266    16    2    0.41000    0.84300    5.93700   16.91200 #   H
267    17    3   -0.82000   14.96500   12.65500   18.72300 #   O
268    17    2    0.41000   15.29900   11.93000   19.25100 #   H
269    17    2    0.41000   15.66800   13.30500   18.73700 #   H
270    18    3   -0.82000    3.91500   11.03600   16.34700 #   O
271    18    2    0.41000    4.75900   10.58900   16.29100 #   H
272    18    2    0.41000    4.05900   11.74100   16.97900 #   H
273    19    3   -0.82000    4.60200    4.11300   17.42700 #   O
274    19    2    0.41000    4.88300    3.27600   17.05900 #   H
275    19    2    0.41000    3.68900    4.20200   17.15200 #   H
276    20    3   -0.82000    0.38700   16.17600   17.30400 #   O
277    20    2    0.41000    0.86700   15.61500   17.91400 #   H
278    20    2    0.41000    0.21200   16.97500   17.80000 #   H
279    21    3   -0.82000   10.07600    8.18800   19.46000 #   O
280    21    2    0.41000   10.60300    8.15500   20.25900 #   H
281    21    2    0.41000   10.70600    8.37800   18.76500 #   H
282    22    3   -0.82000   13.11600   11.85600   14.94100 #   O
283    22    2    0.41000   13.67100   11.10400   15.15100 #   H
284    22    2    0.41000   13.43900   12.16100   14.09300 #   H
285    23    3   -0.82000    8.11300   13.99500   17.46300 #   O
286    23    2    0.41000    7.34900   13.47700   17.20600 #   H
287    23    2    0.41000    8.78900   13.34500   17.65700 #   H
288    24    3   -0.82000   13.90600    2.10000   14.98500 #   O
289    24    2    0.41000   13.34900    1.41400   14.61700 #   H
290    24    2    0.41000   14.66700    2.12800   14.40500 #   H
291    25    3   -0.82000   13.30700   17.05400   17.79500 #   O
292    25    2    0.41000   13.56100   17.89700   18.17200 #   H
293    25    2    0.41000   14.12500   16.68700   17.45900 #   H
294    26    3   -0.82000    2.23800    0.98000   18.28500 #   O
295    26    2    0.41000    2.60200    1.83700   18.06200 #   H
296    26    2    0.41000    2.20400    0.97400   19.24100 #   H
297    27    3   -0.82000   13.05800    1.88100   19.90800 #   O
298    27    2    0.41000   13.14300    2.60800   19.29200 #   H
299    27    2    0.41000   13.78000    2.00300   20.52400 #   H
300    28    3   -0.82000    0.18100    2.66800   19.74700 #   O
301    28    2    0.41000   -0.59700    2.89800   19.23800 #   H
302    28    2    0.41000    0.78500    2.29400   19.10500 #   H
303    29    3   -0.82000    3.54400    8.67100   18.86200 #   O
304    29    2    0.41000    3.69800    7.88100   18.34200 #   H
305    29    2    0.41000    2.71900    8.50200   19.31600 #   H
306    30    3   -0.82000    6.31700    3.32400   19.81800 #   O
307    30    2    0.41000    5.37100    3.28200   19.68400 #   H
308    30    2    0.41000    6.51900    4.26000   19.81400 #   H
309    31    3   -0.82000    4.29500   11.07500   19.16900 #   O
310    31    2    0.41000    5.13600   10.62300   19.23100 #   H
311    31    2    0.41000    4.19200   11.50600   20.01700 #   H
312    32    3   -0.82000    1.06200   12.17000   17.73000 #   O
313    32    2    0.41000    1.73000   12.67800   17.26900 #   H
314    32    2    0.41000    0.36000   12.06100   17.08900 #   H
315    33    3   -0.82000    7.59600   11.36100   18.18700 #   O
316    33    2    0.41000    7.03400   10.68800   18.57100 #   H
317    33    2    0.41000    7.15300   11.60900   17.37500 #   H
318    34    3   -0.82000   10.99600    4.05200   19.00200 #   O
319    34    2    0.41000   11.28700    3.43300   18.33300 #   H
320    34    2    0.41000   10.04100    4.04100   18.94100 #   H
321    35    3   -0.82000    6.33200    7.99800   18.62300 #   O
322    35    2    0.41000    6.36200    8.76200   19.19900 #   H
323    35    2    0.41000    6.10100    7.27100   19.20100 #   H
324    36    3   -0.82000    9.86600    0.47800   19.89500 #   O
325    36    2    0.41000   10.63600    0.52900   20.46200 #   H
326    36    2    0.41000    9.75300   -0.45700   19.72700 #   H
327    37    3   -0.82000   12.29500    6.00400   18.09100 #   O
328    37    2    0.41000   12.75400    6.69200   17.61000 #   H
329    37    2    0.41000   12.96900    5.60500   18.64200 #   H
330    38    3   -0.82000    7.81700    3.81700   14.91400 #   O
331    38    2    0.41000    7.38000    4.66100   14.79800 #   H
332    38    2    0.41000    7.10500    3.20100   15.08800 #   H
333    39    3   -0.82000    3.64700    6.47300   17.57200 #   O
334    39    2    0.41000    4.49200    6.06600   17.37900 #   H
335    39    2    0.41000    3.16400    5.80300   18.05600 #   H
336    40    3   -0.82000   15.79000   15.32100   19.99200 #   O
337    40    2    0.41000   16.11000   16.02500   20.55600 #   H
338    40    2    0.41000   16.50700   15.16200   19.37700 #   H
339    41    3   -0.82000   13.12600    7.77000   19.85200 #   O
340    41    2    0.41000   13.35400    8.49900   20.42900 #   H
341    41    2    0.41000   12.24800    7.98000   19.53500 #   H
342    42    3   -0.82000    9.59500    6.53100   15.17600 #   O
343    42    2    0.41000    9.14300    6.17000   14.41300 #   H
344    42    2    0.41000    9.70900    7.45900   14.97100 #   H
345    43    3   -0.82000    8.09600   14.31400   20.01000 #   O
346    43    2    0.41000    7.25400   14.76900   19.97800 #   H
347    43    2    0.41000    8.74700   15.01500   20.02800 #   H
348    44    3   -0.82000   10.67500   12.75800   19.88800 #   O
349    44    2    0.41000   10.03400   13.45700   20.01600 #   H
350    44    2    0.41000   10.33300   12.02200   20.39700 #   H
351    45    3   -0.82000    6.77800    9.79700   15.47700 #   O
352    45    2    0.41000    6.32200   10.62900   15.35400 #   H
353    45    2    0.41000    7.66300    9.95800   15.14900 #   H
354    46    3   -0.82000    6.95400   16.57000   16.48800 #   O
355    46    2    0.41000    6.42900   15.84300   16.15300 #   H
356    46    2    0.41000    7.48500   16.84700   15.74100 #   H
357    47    3   -0.82000   12.68300   15.81500   14.97200 #   O
358    47    2    0.41000   12.69600   15.51700   14.06300 #   H
359    47    2    0.41000   11.94200   16.41900   15.01700 #   H
360    48    3   -0.82000    0.97800   10.43000   19.64300 #   O
361    48    2    0.41000    0.44700   10.80700   18.94100 #   H
362    48    2    0.41000    1.86900   10.42700   19.29400 #   H
363    49    3   -0.82000   14.56200    2.77800   17.56100 #   O
364    49    2    0.41000   14.84300    1.86800   17.46400 #   H
365    49    2    0.41000   15.34100    3.23700   17.87600 #   H
366    50    3   -0.82000   15.43900   16.46300   15.93900 #   O
367    50    2    0.41000   14.97400   15.64400   15.76900 #   H
368    50    2    0.41000   16.29900   16.18900   16.25800 #   H
369    51    3   -0.82000    2.29100   14.75800   15.09200 #   O
370    51    2    0.41000    1.63200   15.39900   15.35800 #   H
371    51    2    0.41000    2.01900   14.48400   14.21600 #   H
372    52    3   -0.82000   14.99900    6.97600   17.95200 #   O
373    52    2    0.41000   15.61400    6.44700   18.46000 #   H
374    52    2    0.41000   15.54300    7.41000   17.29400 #   H
375    53    3   -0.82000   13.98500    5.80600   15.75300 #   O
376    53    2    0.41000   14.67500    5.41500   15.21800 #   H
377    53    2    0.41000   14.13800    6.74900   15.69000 #   H
378    54    3   -0.82000   15.45400    4.84000   19.89500 #   O
379    54    2    0.41000   16.28700    4.53000   20.24900 #   H
380    54    2    0.41000   14.90200    4.05900   19.86000 #   H
381    55    3   -0.82000    6.40600   12.90600   15.20700 #   O
382    55    2    0.41000    5.70100   12.25900   15.19200 #   H
383    55    2    0.41000    6.07600   13.63400   14.68100 #   H
384    56    3   -0.82000    0.74100    2.76400   14.96300 #   O
385    56    2    0.41000    1.05600    3.46300   14.38900 #   H
386    56    2    0.41000    0.43300    3.21900   15.74700 #   H
387    57    3   -0.82000    4.36400    1.13300   14.78800 #   O
388    57    2    0.41000    3.85200    1.85900   15.14600 #   H
389    57    2    0.41000    4.59200    1.41500   13.90200 #   H
390    58    3   -0.82000    3.15600   13.41600   19.69300 #   O
391    58    2    0.41000    2.93900   14.34900   19.68300 #   H
392    58    2    0.41000    2.34600   12.98400   19.96400 #   H
393    59    3   -0.82000    5.27700    0.08000   20.06500 #   O
394    59    2    0.41000    5.10100    0.12400   19.12500 #   H
395    59    2    0.41000    5.51700   -0.83300   20.22100 #   H
396    60    3   -0.82000    1.71000    5.90500   14.89800 #   O
397    60    2    0.41000    1.90800    6.71300   14.42500 #   H
398    60    2    0.41000    2.08800    6.03800   15.76800 #   H
399    61    3   -0.82000    3.78900    7.74500   15.42700 #   O
400    61    2    0.41000    4.27200    7.02900   15.83800 #   H
401    61    2    0.41000    4.42600    8.45600   15.35800 #   H
402    62    3   -0.82000   10.46100    1.90000   16.26500 #   O
403    62    2    0.41000   10.64100    0.96000   16.29800 #   H
404    62    2    0.41000    9.82400    1.99700   15.55700 #   H
405    63    3   -0.82000    9.25500    5.85700   19.95800 #   O
406    63    2    0.41000    8.36900    5.91200   20.31800 #   H
407    63    2    0.41000    9.57000    6.76100   19.95800 #   H
408    64    3   -0.82000   11.88400    8.31400   15.28000 #   O
409    64    2    0.41000   11.08500    8.44200   14.76800 #   H
410    64    2    0.41000   12.48300    8.99000   14.96300 #   H
411    65    3   -0.82000    4.63700    5.01600   14.99000 #   O
412    65    2    0.41000    5.48700    5.12600   14.56300 #   H
413    65    2    0.41000    4.51300    4.06800   15.03500 #   H
414    66    3   -0.82000    1.40600    5.28800   19.81400 #   O
415    66    2    0.41000    1.57600    4.94800   18.93500 #   H
416    66    2    0.41000    1.71300    4.59700   20.40100 #   H
417    67    3   -0.82000   16.89300    9.53700   17.23800 #   O
418    67    2    0.41000   16.43900    8.91600   16.66900 #   H
419    67    2    0.41000   16.54200    9.36300   18.11100 #   H
420    68    3   -0.82000   13.09500   16.01200   20.02300 #   O
421    68    2    0.41000   12.45900   16.34600   20.65500 #   H
422    68    2    0.41000   13.26200   16.75100   19.43800 #   H
423    69    3   -0.82000    9.84400    4.60900   16.46300 #   O
424    69    2    0.41000   10.57700    4.68700   17.07400 #   H
425    69    2    0.41000    9.92500    3.72600   16.10400 #   H
426    70    3   -0.82000    1.69400   12.26000   15.03200 #   O
427    70    2    0.41000    0.77900   11.97900   15.03000 #   H
428    70    2    0.41000    1.65200   13.21500   15.00000 #   H
429    71    3   -0.82000   16.75800    6.51000   14.84700 #   O
430    71    2    0.41000   16.78900    5.55700   14.93100 #   H
431    71    2    0.41000   17.67000    6.78800   14.93400 #   H
432    72    3   -0.82000    4.92800    5.22900   20.06500 #   O
433    72    2    0.41000    4.65100    6.05100   20.47000 #   H
434    72    2    0.41000    4.45600    5.19800   19.23300 #   H
435    73    3   -0.82000   15.44100    4.31400   14.81900 #   O
436    73    2    0.41000   16.23700    3.85700   15.09000 #   H
437    73    2    0.41000   15.03700    3.73200   14.17500 #   H
438    74    3   -0.82000    7.76600   16.75900   19.31000 #   O
439    74    2    0.41000    6.86900   16.48000   19.12500 #   H
440    74    2    0.41000    7.85800   16.65600   20.25700 #   H
441    75    3   -0.82000    4.18700   13.42300   14.68800 #   O
442    75    2    0.41000    4.49400   13.67600   15.55800 #   H
443    75    2    0.41000    4.14200   12.46700   14.71800 #   H
444    76    3   -0.82000    3.55000    2.99700   20.39300 #   O
445    76    2    0.41000    3.62200    2.97600   21.34700 #   H
446    76    2    0.41000    2.83400    2.39400   20.19200 #   H
447    77    3   -0.82000   13.32300   14.45600   17.05800 #   O
448    77    2    0.41000   14.10000   14.94700   17.32500 #   H
449    77    2    0.41000   13.64500   13.83200   16.40800 #   H
450    78    3   -0.82000   16.11400    8.84400   20.20200 #   O
451    78    2    0.41000   16.50600    8.01400   19.92900 #   H
452    78    2    0.41000   16.82700    9.47900   20.14100 #   H
453    79    3   -0.82000   12.85800   11.52800   19.47300 #   O
454    79    2    0.41000   12.19500   12.19000   19.27700 #   H
455    79    2    0.41000   12.35800   10.73200   19.65200 #   H
456    80    3   -0.82000   10.42000   13.69500   14.63900 #   O
457    80    2    0.41000   11.25900   13.26800   14.46500 #   H
458    80    2    0.41000   10.63400   14.41100   15.23600 #   H