LAMMPS data file generated by OpenBabel
543 atoms
3 atom types
   0.00000  12.35000 xlo xhi
   0.00000  12.83400 ylo yhi
   0.00000  55.00000 zlo zhi

Masses

1 12.0107 # C
2 2.00000 # D
3 15.9994 # O


Atoms

1       1    1    0.00000  -22.32913   90.62622   12.61752 #   C
2       1    1    0.00000  -21.05580   94.21204   12.49920 #   C
3       1    1    0.00000  -21.05424   92.76781   12.56274 #   C
4       1    1    0.00000  -22.32771   92.07285   12.56880 #   C
5       1    1    0.00000  -22.30324   94.91895   12.52466 #   C
6       1    1    0.00000  -21.07489   98.47239   12.36979 #   C
7       1    1    0.00000  -21.09269   97.07135   12.36691 #   C
8       1    1    0.00000  -22.27134   96.39801   12.45448 #   C
9       1    1    0.00000  -22.28698   99.21823   12.34932 #   C
10      1    1    0.00000  -21.08143  102.76984   12.54635 #   C
11      1    1    0.00000  -21.06857  101.31773   12.49845 #   C
12      1    1    0.00000  -22.31086  100.64130   12.40545 #   C
13      1    1    0.00000  -19.87580   90.64850   12.58504 #   C
14      1    1    0.00000  -18.60732   94.19965   12.43097 #   C
15      1    1    0.00000  -18.61509   92.78084   12.51093 #   C
16      1    1    0.00000  -19.83381   92.04316   12.54627 #   C
17      1    1    0.00000  -19.83380   94.95516   12.42359 #   C
18      1    1    0.00000  -18.59251   98.51281   12.51449 #   C
19      1    1    0.00000  -18.58222   97.05257   12.54191 #   C
20      1    1    0.00000  -19.83159   96.34016   12.40354 #   C
21      1    1    0.00000  -19.85964   99.23029   12.44945 #   C
22      1    1    0.00000  -18.65067  102.72399   12.60406 #   C
23      1    1    0.00000  -18.62184  101.33437   12.63906 #   C
24      1    1    0.00000  -19.85421  100.61227   12.56251 #   C
25      1    1    0.00000  -17.39232   90.65701   12.66222 #   C
26      1    1    0.00000  -16.14039   94.22883   12.33815 #   C
27      1    1    0.00000  -16.11538   92.78487   12.41820 #   C
28      1    1    0.00000  -17.37882   92.06346   12.44405 #   C
29      1    1    0.00000  -17.38176   94.92197   12.36525 #   C
30      1    1    0.00000  -16.10521   98.49545   12.54193 #   C
31      1    1    0.00000  -16.13129   97.07015   12.45590 #   C
32      1    1    0.00000  -17.34927   96.36472   12.41381 #   C
33      1    1    0.00000  -17.36318   99.26536   12.58860 #   C
34      1    1    0.00000  -16.14034  102.79827   12.57501 #   C
35      1    1    0.00000  -16.10444  101.32773   12.61633 #   C
36      1    1    0.00000  -17.33193  100.67528   12.64213 #   C
37      1    1    0.00000  -14.90822   90.64617   12.53357 #   C
38      1    1    0.00000  -13.65779   94.22253   12.35375 #   C
39      1    1    0.00000  -13.62950   92.80034   12.42462 #   C
40      1    1    0.00000  -14.84343   92.06128   12.41089 #   C
41      1    1    0.00000  -14.89854   94.92134   12.32214 #   C
42      1    1    0.00000  -13.72577   98.50765   12.46192 #   C
43      1    1    0.00000  -13.73728   97.06145   12.34123 #   C
44      1    1    0.00000  -14.91557   96.33463   12.35378 #   C
45      1    1    0.00000  -14.90066   99.23159   12.55988 #   C
46      1    1    0.00000  -13.66778  102.75636   12.60423 #   C
47      1    1    0.00000  -13.65839  101.34478   12.57583 #   C
48      1    1    0.00000  -14.85205  100.65517   12.60542 #   C
49      1    1    0.00000  -12.46707   90.63270   12.59039 #   C
50      1    1    0.00000  -11.19900   94.24673   12.52457 #   C
51      1    1    0.00000  -11.19722   92.79898   12.52577 #   C
52      1    1    0.00000  -12.42421   92.06864   12.50593 #   C
53      1    1    0.00000  -12.42426   94.96692   12.42552 #   C
54      1    1    0.00000  -11.19174   98.51654   12.26289 #   C
55      1    1    0.00000  -11.19475   97.07127   12.34417 #   C
56      1    1    0.00000  -12.44032   96.42709   12.36883 #   C
57      1    1    0.00000  -12.43364   99.21377   12.30428 #   C
58      1    1    0.00000  -11.24426  102.74437   12.61528 #   C
59      1    1    0.00000  -11.20099  101.33377   12.44725 #   C
60      1    1    0.00000  -12.41387  100.59801   12.41459 #   C
61      2    1    0.00000   -6.13110   37.51090   42.71734 #   C
62      2    1    0.00000   -4.91673   41.08023   42.70379 #   C
63      2    1    0.00000   -4.87992   39.67590   42.64689 #   C
64      2    1    0.00000   -6.14792   38.93413   42.70327 #   C
65      2    1    0.00000   -6.15984   41.80776   42.73605 #   C
66      2    1    0.00000   -4.95533   45.38122   42.69810 #   C
67      2    1    0.00000   -4.93635   43.96049   42.71914 #   C
68      2    1    0.00000   -6.18619   43.22240   42.76929 #   C
69      2    1    0.00000   -6.21294   46.10007   42.74367 #   C
70      2    1    0.00000   -4.90883   49.66328   42.58749 #   C
71      2    1    0.00000   -4.93036   48.25389   42.67067 #   C
72      2    1    0.00000   -6.14741   47.51307   42.71949 #   C
73      2    1    0.00000   -3.65568   37.53162   42.60397 #   C
74      2    1    0.00000   -2.44613   41.10513   42.83130 #   C
75      2    1    0.00000   -2.47237   39.66748   42.82449 #   C
76      2    1    0.00000   -3.65710   38.94753   42.64125 #   C
77      2    1    0.00000   -3.70569   41.83300   42.83264 #   C
78      2    1    0.00000   -2.47692   45.43864   42.78809 #   C
79      2    1    0.00000   -2.46786   43.97903   42.85577 #   C
80      2    1    0.00000   -3.68761   43.26796   42.81219 #   C
81      2    1    0.00000   -3.72134   46.11542   42.72204 #   C
82      2    1    0.00000   -2.41257   49.65992   42.67276 #   C
83      2    1    0.00000   -2.47262   48.24444   42.69398 #   C
84      2    1    0.00000   -3.71263   47.49692   42.63798 #   C
85      2    1    0.00000   -1.16727   37.56861   42.72289 #   C
86      2    1    0.00000    0.04121   41.14066   42.83322 #   C
87      2    1    0.00000    0.02784   39.74916   42.74591 #   C
88      2    1    0.00000   -1.21156   39.00204   42.75322 #   C
89      2    1    0.00000   -1.21793   41.83841   42.85455 #   C
90      2    1    0.00000   -0.04637   45.39408   42.98421 #   C
91      2    1    0.00000   -0.04402   43.95256   42.94211 #   C
92      2    1    0.00000   -1.24631   43.27035   42.85335 #   C
93      2    1    0.00000   -1.21681   46.15649   42.84008 #   C
94      2    1    0.00000    0.05205   49.72899   42.66000 #   C
95      2    1    0.00000   -0.01217   48.27374   42.80658 #   C
96      2    1    0.00000   -1.24899   47.59138   42.78464 #   C
97      2    1    0.00000    1.30427   37.58313   42.69797 #   C
98      2    1    0.00000    2.48366   41.09662   42.93941 #   C
99      2    1    0.00000    2.54169   39.67756   42.85305 #   C
100     2    1    0.00000    1.26248   39.00864   42.70604 #   C
101     2    1    0.00000    1.25214   41.84165   42.90873 #   C
102     2    1    0.00000    2.43216   45.39198   43.09716 #   C
103     2    1    0.00000    2.44873   43.98872   43.07100 #   C
104     2    1    0.00000    1.24438   43.28677   43.02970 #   C
105     2    1    0.00000    1.20290   46.11094   43.08401 #   C
106     2    1    0.00000    2.48514   49.67591   42.78019 #   C
107     2    1    0.00000    2.46893   48.26032   42.94604 #   C
108     2    1    0.00000    1.21891   47.52161   42.92811 #   C
109     2    1    0.00000    3.69964   37.55421   42.77295 #   C
110     2    1    0.00000    4.97807   41.09065   42.73956 #   C
111     2    1    0.00000    4.96842   39.65520   42.74826 #   C
112     2    1    0.00000    3.73773   39.00326   42.88603 #   C
113     2    1    0.00000    3.76243   41.81482   42.82822 #   C
114     2    1    0.00000    4.89774   45.38297   42.83532 #   C
115     2    1    0.00000    4.93573   43.93076   42.86337 #   C
116     2    1    0.00000    3.71445   43.20881   42.97025 #   C
117     2    1    0.00000    3.70585   46.10361   42.89383 #   C
118     2    1    0.00000    4.92757   49.64296   42.73203 #   C
119     2    1    0.00000    4.98221   48.23774   42.78876 #   C
120     2    1    0.00000    3.74595   47.53252   42.88666 #   C
121     3    3   -0.82000    0.28349  -39.99171   31.75107 #   O
122     3    2    0.41000    1.07315  -39.68011   31.23375 #   H
123     3    2    0.41000   -0.50504  -39.91285   31.18298 #   H
124     4    3   -0.82000    0.17873  -44.61172   21.01517 #   O
125     4    2    0.41000   -0.72545  -44.49609   20.69769 #   H
126     4    2    0.41000   -0.03585  -44.77227   21.93554 #   H
127     5    3   -0.82000   -4.94065   -6.73398   33.82903 #   O
128     5    2    0.41000   -5.81659   -7.29703   33.80721 #   H
129     5    2    0.41000   -4.22364   -7.42468   33.79571 #   H
130     6    3   -0.82000   11.13649  -30.68344   36.39091 #   O
131     6    2    0.41000   10.58064  -30.31429   37.07096 #   H
132     6    2    0.41000   12.04006  -30.46273   36.70923 #   H
133     7    3   -0.82000   24.61779  -35.81443   31.69087 #   O
134     7    2    0.41000   25.49432  -36.09628   31.98838 #   H
135     7    2    0.41000   24.52635  -35.64040   30.72350 #   H
136     8    3   -0.82000   22.59770  -34.49534   22.05205 #   O
137     8    2    0.41000   21.71363  -34.86822   21.92527 #   H
138     8    2    0.41000   22.60333  -34.21457   22.97976 #   H
139     9    3   -0.82000   14.26771  -36.20665   23.89016 #   O
140     9    2    0.41000   15.05390  -36.14310   23.34670 #   H
141     9    2    0.41000   14.45402  -35.65416   24.65613 #   H
142    10    3   -0.82000    7.17018  -25.83494   38.33237 #   O
143    10    2    0.41000    7.97467  -25.34775   38.56366 #   H
144    10    2    0.41000    7.42062  -26.30059   37.55212 #   H
145    11    3   -0.82000    3.55860  -17.99434   18.32812 #   O
146    11    2    0.41000    3.44933  -17.90492   17.33911 #   H
147    11    2    0.41000    4.12847  -18.79404   18.33696 #   H
148    12    3   -0.82000    8.17002  -31.42471   22.64890 #   O
149    12    2    0.41000    8.03055  -30.43545   22.37451 #   H
150    12    2    0.41000    7.47853  -31.90445   22.13912 #   H
151    13    3   -0.82000   20.59536  -43.70758   18.21852 #   O
152    13    2    0.41000   20.51033  -43.53835   17.24841 #   H
153    13    2    0.41000   20.64009  -42.79996   18.50755 #   H
154    14    3   -0.82000   20.32790  -51.50712   20.86674 #   O
155    14    2    0.41000   19.54260  -52.02680   21.19120 #   H
156    14    2    0.41000   20.95354  -52.20110   20.49062 #   H
157    15    3   -0.82000   23.35391  -49.62133   25.27076 #   O
158    15    2    0.41000   22.84819  -50.12458   24.58694 #   H
159    15    2    0.41000   23.12381  -48.63379   25.13392 #   H
160    16    3   -0.82000   -6.99300  -25.26943   24.41690 #   O
161    16    2    0.41000   -7.03955  -25.37671   23.35390 #   H
162    16    2    0.41000   -6.01692  -25.00920   24.61535 #   H
163    17    3   -0.82000   17.69875  -22.41447   19.69468 #   O
164    17    2    0.41000   18.35182  -22.22433   20.38360 #   H
165    17    2    0.41000   18.18648  -23.18160   19.21619 #   H
166    18    3   -0.82000   25.19855  -31.63314   30.07631 #   O
167    18    2    0.41000   24.34994  -32.07933   30.38890 #   H
168    18    2    0.41000   25.39611  -30.86500   30.69665 #   H
169    19    3   -0.82000   15.09441  -31.89928   36.37900 #   O
170    19    2    0.41000   14.37704  -32.59475   36.64635 #   H
171    19    2    0.41000   15.83324  -32.20758   36.92955 #   H
172    20    3   -0.82000   16.82904  -19.12281   29.74369 #   O
173    20    2    0.41000   17.60131  -18.87293   30.26624 #   H
174    20    2    0.41000   16.36325  -19.59939   30.45140 #   H
175    21    3   -0.82000    0.39857  -30.47293   23.61677 #   O
176    21    2    0.41000   -0.13610  -30.73383   24.45166 #   H
177    21    2    0.41000    0.36314  -29.50500   23.52957 #   H
178    22    3   -0.82000   33.05024  -21.00236   18.18377 #   O
179    22    2    0.41000   33.04031  -20.08271   18.49247 #   H
180    22    2    0.41000   33.98366  -21.30693   18.31373 #   H
181    23    3   -0.82000   23.20596  -26.94653   29.69931 #   O
182    23    2    0.41000   23.76358  -26.93680   28.89261 #   H
183    23    2    0.41000   22.84233  -27.87082   29.79456 #   H
184    24    3   -0.82000   10.27026    8.81978   33.67379 #   O
185    24    2    0.41000   10.21819    8.19541   34.43037 #   H
186    24    2    0.41000    9.97023    8.23675   32.91385 #   H
187    25    3   -0.82000    6.62682   -3.04448   31.22861 #   O
188    25    2    0.41000    6.41619   -2.93742   30.24006 #   H
189    25    2    0.41000    7.45848   -2.59280   31.45551 #   H
190    26    3   -0.82000   17.52581  -68.62576   39.43718 #   O
191    26    2    0.41000   17.56599  -67.78076   38.96227 #   H
192    26    2    0.41000   17.62813  -68.34088   40.37085 #   H
193    27    3   -0.82000   11.79153    1.30880   35.65702 #   O
194    27    2    0.41000   11.42158    1.38800   34.77678 #   H
195    27    2    0.41000   12.27454    2.09158   35.85346 #   H
196    28    3   -0.82000    5.35452  -66.84357   28.39494 #   O
197    28    2    0.41000    5.73752  -66.36418   27.60377 #   H
198    28    2    0.41000    4.63285  -67.41420   28.10697 #   H
199    29    3   -0.82000   -8.44230  -23.77276   32.56658 #   O
200    29    2    0.41000   -9.04864  -24.23056   31.91946 #   H
201    29    2    0.41000   -8.57114  -24.18756   33.48054 #   H
202    30    3   -0.82000   52.26352  -53.09155   29.73233 #   O
203    30    2    0.41000   53.12584  -53.22486   29.32347 #   H
204    30    2    0.41000   51.59016  -53.01513   28.99820 #   H
205    31    3   -0.82000   -4.67984  -17.04472   27.30180 #   O
206    31    2    0.41000   -5.46186  -16.75507   27.82121 #   H
207    31    2    0.41000   -4.95985  -17.89965   26.83770 #   H
208    32    3   -0.82000   -9.35141    8.17982   33.47362 #   O
209    32    2    0.41000   -8.88669    8.69698   34.11197 #   H
210    32    2    0.41000  -10.10751    8.75329   33.19168 #   H
211    33    3   -0.82000   37.59976  -18.51190   15.26230 #   O
212    33    2    0.41000   37.46915  -19.50332   15.17128 #   H
213    33    2    0.41000   36.91687  -18.15857   15.91686 #   H
214    34    3   -0.82000    7.83879  -18.76070   39.12552 #   O
215    34    2    0.41000    7.79871  -18.82615   38.15836 #   H
216    34    2    0.41000    7.04090  -18.21981   39.32385 #   H
217    35    3   -0.82000   13.99322  -29.45559   20.35028 #   O
218    35    2    0.41000   13.41484  -30.20943   20.66900 #   H
219    35    2    0.41000   14.44317  -29.86585   19.60788 #   H
220    36    3   -0.82000   14.26083  -28.00707   35.26001 #   O
221    36    2    0.41000   14.76427  -27.18658   35.37373 #   H
222    36    2    0.41000   13.34977  -27.74146   34.99482 #   H
223    37    3   -0.82000   11.12484   -8.69255   19.23514 #   O
224    37    2    0.41000   11.97804   -8.32657   18.87486 #   H
225    37    2    0.41000   11.14200   -8.42481   20.19165 #   H
226    38    3   -0.82000   20.21276  -24.53868   25.66492 #   O
227    38    2    0.41000   19.79082  -24.74287   26.57394 #   H
228    38    2    0.41000   21.16799  -24.59886   25.88756 #   H
229    39    3   -0.82000   21.41566  -51.15973   36.14231 #   O
230    39    2    0.41000   21.51667  -51.02470   35.18983 #   H
231    39    2    0.41000   22.19582  -50.81448   36.55775 #   H
232    40    3   -0.82000   19.13478  -11.88076   18.53407 #   O
233    40    2    0.41000   19.86164  -12.15462   19.21131 #   H
234    40    2    0.41000   18.55597  -12.71647   18.66935 #   H
235    41    3   -0.82000   24.95094  -28.07740   18.00406 #   O
236    41    2    0.41000   25.62825  -28.23580   18.71847 #   H
237    41    2    0.41000   25.58034  -27.80667   17.27955 #   H
238    42    3   -0.82000   -1.65950  -33.20362   36.84960 #   O
239    42    2    0.41000   -1.96140  -33.71739   36.06956 #   H
240    42    2    0.41000   -1.61047  -32.21779   36.54688 #   H
241    43    3   -0.82000   26.69669  -46.52080   30.79055 #   O
242    43    2    0.41000   26.46812  -46.43242   31.72654 #   H
243    43    2    0.41000   26.31588  -45.63832   30.44675 #   H
244    44    3   -0.82000   42.45196   -7.00145   37.34205 #   O
245    44    2    0.41000   42.75391   -7.69422   36.71842 #   H
246    44    2    0.41000   43.19815   -6.34546   37.29467 #   H
247    45    3   -0.82000  -11.81672  -29.81306   31.85142 #   O
248    45    2    0.41000  -12.39457  -29.95255   32.59178 #   H
249    45    2    0.41000  -11.86794  -28.88616   31.59222 #   H
250    46    3   -0.82000   23.11550  -33.62572   24.75601 #   O
251    46    2    0.41000   22.43797  -32.95502   24.99983 #   H
252    46    2    0.41000   23.94017  -33.19032   24.83446 #   H
253    47    3   -0.82000   38.86031  -21.60167   20.91677 #   O
254    47    2    0.41000   38.40689  -20.74184   20.83288 #   H
255    47    2    0.41000   38.16484  -22.30621   21.03903 #   H
256    48    3   -0.82000   -4.68889  -28.57971   22.44766 #   O
257    48    2    0.41000   -5.49382  -28.85743   22.93033 #   H
258    48    2    0.41000   -4.04569  -28.36486   23.21983 #   H
259    49    3   -0.82000   25.70029   17.34025   37.41460 #   O
260    49    2    0.41000   24.77545   17.70060   37.29381 #   H
261    49    2    0.41000   25.92848   17.39799   38.41334 #   H
262    50    3   -0.82000   15.77123  -25.16176   34.86075 #   O
263    50    2    0.41000   15.55696  -24.45675   35.42715 #   H
264    50    2    0.41000   16.58875  -25.65916   35.12479 #   H
265    51    3   -0.82000   -2.56887  -21.30703   39.37871 #   O
266    51    2    0.41000   -2.58686  -20.76315   38.60778 #   H
267    51    2    0.41000   -3.26074  -20.96121   39.90841 #   H
268    52    3   -0.82000    9.70917  -18.31281   31.48526 #   O
269    52    2    0.41000   10.12052  -19.20390   31.29589 #   H
270    52    2    0.41000    8.78818  -18.40307   31.16020 #   H
271    53    3   -0.82000  -10.56358  -63.82208   18.93163 #   O
272    53    2    0.41000  -10.59036  -63.95149   17.93288 #   H
273    53    2    0.41000  -11.33976  -63.24295   19.04850 #   H
274    54    3   -0.82000   34.36717  -37.45911   28.31570 #   O
275    54    2    0.41000   35.24935  -37.04397   28.23800 #   H
276    54    2    0.41000   34.56424  -38.29931   28.74167 #   H
277    55    3   -0.82000   26.44792  -13.36496   16.15167 #   O
278    55    2    0.41000   27.48975  -13.25510   15.84624 #   H
279    55    2    0.41000   25.94993  -12.67857   15.64465 #   H
280    56    3   -0.82000   24.35944  -23.74480   21.59346 #   O
281    56    2    0.41000   24.95246  -23.76814   22.41484 #   H
282    56    2    0.41000   23.66029  -23.03079   21.84913 #   H
283    57    3   -0.82000   23.68244   -4.90675   17.75399 #   O
284    57    2    0.41000   22.72946   -4.84001   18.04012 #   H
285    57    2    0.41000   24.03429   -4.08183   17.97052 #   H
286    58    3   -0.82000   21.67670  -27.69516   24.40198 #   O
287    58    2    0.41000   22.25557  -26.95392   24.06830 #   H
288    58    2    0.41000   22.12277  -28.31647   25.00923 #   H
289    59    3   -0.82000    5.49170  -39.99680   35.21855 #   O
290    59    2    0.41000    4.91705  -40.45827   34.63717 #   H
291    59    2    0.41000    5.32880  -40.36917   36.12177 #   H
292    60    3   -0.82000   24.15247  -22.70999   28.75401 #   O
293    60    2    0.41000   23.71059  -21.86739   28.47126 #   H
294    60    2    0.41000   24.95057  -22.71832   28.22266 #   H
295    61    3   -0.82000    0.49928    4.12369   15.50945 #   O
296    61    2    0.41000    1.25557    3.52849   15.18497 #   H
297    61    2    0.41000    0.79316    4.61279   16.35894 #   H
298    62    3   -0.82000    3.61401   14.22387   20.78549 #   O
299    62    2    0.41000    3.90354   14.96050   20.25075 #   H
300    62    2    0.41000    2.82417   13.89111   20.25901 #   H
301    63    3   -0.82000   22.67057  -51.88025   18.12587 #   O
302    63    2    0.41000   22.22453  -52.29547   18.84757 #   H
303    63    2    0.41000   23.22165  -52.55531   17.67434 #   H
304    64    3   -0.82000  -19.80088  -23.94179   38.08985 #   O
305    64    2    0.41000  -19.31825  -23.25021   38.61363 #   H
306    64    2    0.41000  -19.09578  -24.65770   37.99655 #   H
307    65    3   -0.82000    7.60311  -48.67042   33.83351 #   O
308    65    2    0.41000    7.53118  -49.60305   33.78694 #   H
309    65    2    0.41000    7.31436  -48.37342   32.92411 #   H
310    66    3   -0.82000    9.33403  -49.98044   39.44328 #   O
311    66    2    0.41000    9.62031  -49.06126   39.71207 #   H
312    66    2    0.41000   10.14388  -50.48009   39.37890 #   H
313    67    3   -0.82000   13.73092  -42.44203   37.33753 #   O
314    67    2    0.41000   13.93127  -41.83242   36.55791 #   H
315    67    2    0.41000   14.34720  -43.17076   37.17023 #   H
316    68    3   -0.82000   -1.83301  -50.36392   33.23206 #   O
317    68    2    0.41000   -1.34989  -49.92555   32.53016 #   H
318    68    2    0.41000   -1.67213  -51.29228   33.04025 #   H
319    69    3   -0.82000    4.28127   -2.03049   32.74624 #   O
320    69    2    0.41000    5.03501   -2.23008   32.21392 #   H
321    69    2    0.41000    3.79979   -1.54592   32.05298 #   H
322    70    3   -0.82000    7.47336  -40.62988   18.50227 #   O
323    70    2    0.41000    7.07959  -40.72094   17.60201 #   H
324    70    2    0.41000    6.92178  -41.14344   19.16036 #   H
325    71    3   -0.82000  -17.19773   -0.01839   33.66773 #   O
326    71    2    0.41000  -17.80926    0.07211   32.85285 #   H
327    71    2    0.41000  -17.59434   -0.71453   34.18094 #   H
328    72    3   -0.82000   23.03669  -17.38215   25.66332 #   O
329    72    2    0.41000   22.23506  -17.94292   25.73295 #   H
330    72    2    0.41000   23.44143  -17.50453   26.55806 #   H
331    73    3   -0.82000    8.40979    1.86830   30.57944 #   O
332    73    2    0.41000    8.91899    1.61875   29.70802 #   H
333    73    2    0.41000    8.79450    1.27116   31.25722 #   H
334    74    3   -0.82000   18.17029  -21.71059   35.19154 #   O
335    74    2    0.41000   18.82732  -22.30362   34.79096 #   H
336    74    2    0.41000   17.33064  -22.21048   35.32928 #   H
337    75    3   -0.82000   33.30374  -13.24028   15.68379 #   O
338    75    2    0.41000   33.89396  -13.07510   16.47095 #   H
339    75    2    0.41000   33.71992  -12.62396   15.04062 #   H
340    76    3   -0.82000    0.80754  -40.22532   27.70929 #   O
341    76    2    0.41000    0.63940  -41.07878   27.30606 #   H
342    76    2    0.41000    1.16430  -39.65225   27.00229 #   H
343    77    3   -0.82000   37.22819   -1.18648   21.31915 #   O
344    77    2    0.41000   37.93986   -1.68539   20.84175 #   H
345    77    2    0.41000   37.17006   -0.36797   20.79404 #   H
346    78    3   -0.82000   28.96367  -25.82087   27.19650 #   O
347    78    2    0.41000   28.19840  -25.24712   27.14515 #   H
348    78    2    0.41000   29.31044  -25.78189   26.36486 #   H
349    79    3   -0.82000   25.59038  -20.01047   26.10940 #   O
350    79    2    0.41000   26.04613  -19.71808   25.24847 #   H
351    79    2    0.41000   25.58590  -19.21808   26.62607 #   H
352    80    3   -0.82000    1.23640  -12.78139   25.45489 #   O
353    80    2    0.41000    1.67942  -12.35100   24.65188 #   H
354    80    2    0.41000    0.47145  -12.24274   25.86899 #   H
355    81    3   -0.82000   25.80207  -20.02712   18.36994 #   O
356    81    2    0.41000   26.74333  -19.89507   18.56697 #   H
357    81    2    0.41000   25.38754  -19.12069   18.32671 #   H
358    82    3   -0.82000    8.57826  -19.09534   25.29918 #   O
359    82    2    0.41000    7.78443  -19.66510   25.58717 #   H
360    82    2    0.41000    8.58688  -19.17933   24.29441 #   H
361    83    3   -0.82000   11.33775  -12.93394   37.92368 #   O
362    83    2    0.41000   11.81543  -12.69586   37.08459 #   H
363    83    2    0.41000   11.74163  -13.72901   38.32226 #   H
364    84    3   -0.82000   17.68576  -51.56787   21.78769 #   O
365    84    2    0.41000   17.03962  -50.92916   21.31831 #   H
366    84    2    0.41000   17.06627  -52.33268   21.97417 #   H
367    85    3   -0.82000   17.82272  -29.68105   23.63144 #   O
368    85    2    0.41000   17.95258  -28.98169   24.28943 #   H
369    85    2    0.41000   17.02947  -29.42940   23.09744 #   H
370    86    3   -0.82000   19.03111  -15.14904   15.66116 #   O
371    86    2    0.41000   19.75306  -14.54125   15.55576 #   H
372    86    2    0.41000   18.23508  -14.69827   15.31646 #   H
373    87    3   -0.82000   20.25346  -43.20666   15.69114 #   O
374    87    2    0.41000   19.58169  -42.43789   15.50836 #   H
375    87    2    0.41000   20.61118  -43.53063   14.86732 #   H
376    88    3   -0.82000   -7.26300  -54.81361   19.82762 #   O
377    88    2    0.41000   -6.78808  -55.42054   20.35588 #   H
378    88    2    0.41000   -7.74294  -55.23493   19.10879 #   H
379    89    3   -0.82000   29.72704   -8.61893   39.47751 #   O
380    89    2    0.41000   30.23282   -8.04992   40.11824 #   H
381    89    2    0.41000   30.01889   -8.20091   38.62287 #   H
382    90    3   -0.82000    7.65408  -30.88078   36.29538 #   O
383    90    2    0.41000    8.09799  -30.00117   36.08400 #   H
384    90    2    0.41000    7.33834  -31.16463   35.44917 #   H
385    91    3   -0.82000   25.43222  -17.45118   27.40816 #   O
386    91    2    0.41000   26.41522  -17.43750   27.45884 #   H
387    91    2    0.41000   25.15136  -17.84208   28.25222 #   H
388    92    3   -0.82000   34.59124  -30.61967   20.73859 #   O
389    92    2    0.41000   34.04686  -30.93623   21.50296 #   H
390    92    2    0.41000   34.27147  -31.12460   19.97633 #   H
391    93    3   -0.82000   18.94955    0.84760   28.33394 #   O
392    93    2    0.41000   19.61170    0.76124   29.12667 #   H
393    93    2    0.41000   18.23014    0.21040   28.54769 #   H
394    94    3   -0.82000   18.15773  -22.05291   31.43123 #   O
395    94    2    0.41000   17.44505  -22.58770   31.90728 #   H
396    94    2    0.41000   18.09458  -21.14815   31.71303 #   H
397    95    3   -0.82000    2.27688  -20.70722   39.78017 #   O
398    95    2    0.41000    2.20319  -20.66304   40.75512 #   H
399    95    2    0.41000    3.18799  -21.14646   39.68486 #   H
400    96    3   -0.82000    0.15000  -27.98455   38.90796 #   O
401    96    2    0.41000   -0.71578  -28.38643   39.31862 #   H
402    96    2    0.41000    0.56707  -28.77426   38.46561 #   H
403    97    3   -0.82000    6.05263  -23.66237   16.08380 #   O
404    97    2    0.41000    6.42315  -24.13827   16.83899 #   H
405    97    2    0.41000    6.56101  -22.87514   15.82565 #   H
406    98    3   -0.82000   17.49731   -7.32153   18.49981 #   O
407    98    2    0.41000   17.86699   -7.25218   17.61510 #   H
408    98    2    0.41000   17.43715   -8.25792   18.81093 #   H
409    99    3   -0.82000   15.25480  -26.60741   39.11156 #   O
410    99    2    0.41000   15.20149  -25.72928   39.54084 #   H
411    99    2    0.41000   14.39777  -27.03119   39.10609 #   H
412   100    3   -0.82000   18.53499  -66.42615   25.87015 #   O
413   100    2    0.41000   19.44085  -66.63185   25.87251 #   H
414   100    2    0.41000   18.32604  -65.56635   25.41237 #   H
415   101    3   -0.82000   28.21157  -15.28999   22.64167 #   O
416   101    2    0.41000   27.85801  -15.65839   21.83723 #   H
417   101    2    0.41000   27.35154  -15.08923   23.10211 #   H
418   102    3   -0.82000   11.46975  -14.68933   34.72343 #   O
419   102    2    0.41000   11.21392  -15.48753   34.18129 #   H
420   102    2    0.41000   11.00574  -14.76670   35.58704 #   H
421   103    3   -0.82000   27.00808  -57.92050   23.81337 #   O
422   103    2    0.41000   27.43079  -58.43055   23.13211 #   H
423   103    2    0.41000   26.46848  -57.14532   23.43750 #   H
424   104    3   -0.82000   34.57426  -51.16282   23.01355 #   O
425   104    2    0.41000   33.82214  -51.30448   22.37880 #   H
426   104    2    0.41000   35.35341  -50.91460   22.49348 #   H
427   105    3   -0.82000   22.51284  -15.11378   20.30995 #   O
428   105    2    0.41000   23.33933  -14.82624   20.68313 #   H
429   105    2    0.41000   22.23507  -15.98241   20.65739 #   H
430   106    3   -0.82000   15.52614  -30.59156   15.58751 #   O
431   106    2    0.41000   14.58732  -30.79541   15.48615 #   H
432   106    2    0.41000   16.00828  -31.42388   15.37162 #   H
433   107    3   -0.82000    9.36714  -53.09701   32.02105 #   O
434   107    2    0.41000    8.78896  -52.58251   32.62182 #   H
435   107    2    0.41000    9.76916  -53.76264   32.62931 #   H
436   108    3   -0.82000    4.84674  -35.40207   24.21044 #   O
437   108    2    0.41000    4.14755  -35.20755   24.86831 #   H
438   108    2    0.41000    4.86281  -36.39865   24.23782 #   H
439   109    3   -0.82000    2.98054   -9.89583   28.92644 #   O
440   109    2    0.41000    3.92508   -9.67939   28.68138 #   H
441   109    2    0.41000    2.71857   -9.24034   29.63410 #   H
442   110    3   -0.82000   21.49158  -53.81558   36.73091 #   O
443   110    2    0.41000   21.56831  -52.85439   36.59576 #   H
444   110    2    0.41000   22.11646  -54.05491   37.47845 #   H
445   111    3   -0.82000    8.47316    4.70362   30.26729 #   O
446   111    2    0.41000    7.57891    5.05634   30.19781 #   H
447   111    2    0.41000    8.31207    3.77725   30.63248 #   H
448   112    3   -0.82000   -7.96418   20.02657   25.37845 #   O
449   112    2    0.41000   -7.39279   20.61103   24.81289 #   H
450   112    2    0.41000   -8.69202   19.68461   24.76018 #   H
451   113    3   -0.82000   22.49937   -7.77472   27.90203 #   O
452   113    2    0.41000   21.77606   -8.05736   28.53705 #   H
453   113    2    0.41000   22.00805   -7.86959   27.07249 #   H
454   114    3   -0.82000    5.54933  -60.71500   28.46007 #   O
455   114    2    0.41000    5.86487  -61.63246   28.53896 #   H
456   114    2    0.41000    5.65592  -60.37213   29.34332 #   H
457   115    3   -0.82000    2.93047  -11.12313   40.11948 #   O
458   115    2    0.41000    3.65368  -11.10705   39.45754 #   H